<?xml version="1.0" encoding="UTF-8"?>

<!-- generated on 2025-11-15 05:57:18 by Eclipse SUMO GUI Version 1.21.0
<sumoConfiguration xmlns:xsi="http://www.w3.org/2001/XMLSchema-instance" xsi:noNamespaceSchemaLocation="http://sumo.dlr.de/xsd/sumoConfiguration.xsd">

    <input>
        <net-file value="C:\Users\X1\Documents\SUMO\12th Oct 2025\LinkedIn Project\10th Nov\roundabout1.net.xml"/>
        <route-files value="C:\Users\X1\Documents\SUMO\12th Oct 2025\LinkedIn Project\10th Nov\roundabout_update.rou.xml"/>
    </input>

    <output>
        <summary-output value="C:\Users\X1\Documents\SUMO\12th Oct 2025\LinkedIn Project\10th Nov\summary.xml"/>
        <tripinfo-output value="C:\Users\X1\Documents\SUMO\12th Oct 2025\LinkedIn Project\10th Nov\tripinfo.xml"/>
    </output>

    <time>
        <begin value="0"/>
        <end value="15300"/>
    </time>

    <report>
        <verbose value="true"/>
        <no-step-log value="true"/>
    </report>

    <gui_only>
        <start value="true"/>
    </gui_only>

</sumoConfiguration>
-->

<tripinfos xmlns:xsi="http://www.w3.org/2001/XMLSchema-instance" xsi:noNamespaceSchemaLocation="http://sumo.dlr.de/xsd/tripinfo_file.xsd">
    <tripinfo id="flow_Barka_pc_straight.0" depart="0.00" departLane="20910676#0_0" departPos="4.60" departSpeed="0.00" departDelay="0.00" arrival="14.00" arrivalLane="20910676#1_2" arrivalPos="33.23" arrivalSpeed="13.44" duration="14.00" routeLength="63.79" waitingTime="0.00" waitingCount="0" stopTime="0.00" timeLoss="9.48" rerouteNo="0" devices="tripinfo_flow_Barka_pc_straight.0 routing_flow_Barka_pc_straight.0" vType="car" speedFactor="1.06" vaporized=""/>
    <tripinfo id="flow_Barka_pc_left_mid.0" depart="0.00" departLane="20910676#0_1" departPos="4.60" departSpeed="0.00" departDelay="0.00" arrival="14.00" arrivalLane="20910676#2_2" arrivalPos="18.38" arrivalSpeed="15.71" duration="14.00" routeLength="94.59" waitingTime="0.00" waitingCount="0" stopTime="0.00" timeLoss="7.83" rerouteNo="1" devices="tripinfo_flow_Barka_pc_left_mid.0 routing_flow_Barka_pc_left_mid.0" vType="car" speedFactor="0.89" vaporized=""/>
    <tripinfo id="flow_Palace_pc_straight.0" depart="0.00" departLane="20910676#1_2" departPos="4.60" departSpeed="0.00" departDelay="0.00" arrival="15.00" arrivalLane="20910676#4_2" arrivalPos="27.41" arrivalSpeed="14.91" duration="15.00" routeLength="154.67" waitingTime="0.00" waitingCount="0" stopTime="0.00" timeLoss="5.05" rerouteNo="1" devices="tripinfo_flow_Palace_pc_straight.0 routing_flow_Palace_pc_straight.0" vType="car" speedFactor="1.03" vaporized=""/>
    <tripinfo id="flow_Barka_pc_straight_mid.0" depart="3.00" departLane="20910676#0_1" departPos="4.60" departSpeed="0.00" departDelay="3.00" arrival="16.00" arrivalLane="20910676#1_2" arrivalPos="33.23" arrivalSpeed="14.14" duration="13.00" routeLength="63.79" waitingTime="0.00" waitingCount="0" stopTime="0.00" timeLoss="8.39" rerouteNo="0" devices="tripinfo_flow_Barka_pc_straight_mid.0 routing_flow_Barka_pc_straight_mid.0" vType="car" speedFactor="0.94" vaporized=""/>
    <tripinfo id="flow_Barka_pc_left.0" depart="1.00" departLane="20910676#0_0" departPos="4.60" departSpeed="0.00" departDelay="1.00" arrival="17.00" arrivalLane="20910676#2_1" arrivalPos="18.38" arrivalSpeed="11.64" duration="16.00" routeLength="94.59" waitingTime="0.00" waitingCount="0" stopTime="0.00" timeLoss="10.00" rerouteNo="1" devices="tripinfo_flow_Barka_pc_left.0 routing_flow_Barka_pc_left.0" vType="car" speedFactor="0.94" vaporized=""/>
    <tripinfo id="flow_Maabilah_pc_straight.0" depart="0.00" departLane="20910676#5_2" departPos="4.60" departSpeed="0.00" departDelay="0.00" arrival="17.00" arrivalLane="20910676#1_2" arrivalPos="33.23" arrivalSpeed="15.45" duration="17.00" routeLength="203.78" waitingTime="0.00" waitingCount="0" stopTime="0.00" timeLoss="4.70" rerouteNo="1" devices="tripinfo_flow_Maabilah_pc_straight.0 routing_flow_Maabilah_pc_straight.0" vType="car" speedFactor="0.97" vaporized=""/>
    <tripinfo id="flow_Palace_pc_straight_outer.0" depart="0.00" departLane="20910676#1_0" departPos="4.60" departSpeed="0.00" departDelay="0.00" arrival="17.00" arrivalLane="20910676#4_2" arrivalPos="27.41" arrivalSpeed="16.19" duration="17.00" routeLength="154.67" waitingTime="0.00" waitingCount="0" stopTime="0.00" timeLoss="6.84" rerouteNo="1" devices="tripinfo_flow_Palace_pc_straight_outer.0 routing_flow_Palace_pc_straight_outer.0" vType="car" speedFactor="1.04" vaporized=""/>
    <tripinfo id="flow_Barka_truck_straight_mid.0" depart="4.00" departLane="20910676#0_1" departPos="14.03" departSpeed="0.00" departDelay="4.00" arrival="20.00" arrivalLane="20910676#1_1" arrivalPos="33.23" arrivalSpeed="8.76" duration="16.00" routeLength="54.36" waitingTime="0.00" waitingCount="0" stopTime="0.00" timeLoss="11.78" rerouteNo="0" devices="tripinfo_flow_Barka_truck_straight_mid.0 routing_flow_Barka_truck_straight_mid.0" vType="truck" speedFactor="0.86" vaporized=""/>
    <tripinfo id="flow_Muscat_pc_straight.0" depart="0.00" departLane="20910676#4_2" departPos="4.60" departSpeed="0.00" departDelay="0.00" arrival="22.00" arrivalLane="20910676#1_2" arrivalPos="33.23" arrivalSpeed="15.42" duration="22.00" routeLength="258.22" waitingTime="0.00" waitingCount="0" stopTime="0.00" timeLoss="6.03" rerouteNo="1" devices="tripinfo_flow_Muscat_pc_straight.0 routing_flow_Muscat_pc_straight.0" vType="car" speedFactor="1.13" vaporized=""/>
    <tripinfo id="flow_Barka_pc_straight_outer.0" depart="9.00" departLane="20910676#0_0" departPos="4.60" departSpeed="0.00" departDelay="9.00" arrival="26.00" arrivalLane="20910676#1_0" arrivalPos="33.23" arrivalSpeed="11.15" duration="17.00" routeLength="63.79" waitingTime="0.00" waitingCount="0" stopTime="0.00" timeLoss="13.06" rerouteNo="0" devices="tripinfo_flow_Barka_pc_straight_outer.0 routing_flow_Barka_pc_straight_outer.0" vType="car" speedFactor="0.89" vaporized=""/>
    <tripinfo id="flow_Muscat_pc_left.0" depart="3.00" departLane="20910676#4_2" departPos="4.60" departSpeed="0.00" departDelay="3.00" arrival="26.00" arrivalLane="20910676#2_2" arrivalPos="18.38" arrivalSpeed="15.46" duration="23.00" routeLength="289.02" waitingTime="0.00" waitingCount="0" stopTime="0.00" timeLoss="4.87" rerouteNo="1" devices="tripinfo_flow_Muscat_pc_left.0 routing_flow_Muscat_pc_left.0" vType="car" speedFactor="0.93" vaporized=""/>
    <tripinfo id="flow_Palace_pc_left.0" depart="3.00" departLane="20910676#1_2" departPos="4.60" departSpeed="0.00" departDelay="3.00" arrival="26.00" arrivalLane="20910676#5_2" arrivalPos="21.20" arrivalSpeed="6.58" duration="23.00" routeLength="202.90" waitingTime="0.00" waitingCount="0" stopTime="0.00" timeLoss="10.73" rerouteNo="1" devices="tripinfo_flow_Palace_pc_left.0 routing_flow_Palace_pc_left.0" vType="car" speedFactor="0.96" vaporized=""/>
    <tripinfo id="flow_Palace_bus_straight_outer.0" depart="1.00" departLane="20910676#1_0" departPos="12.10" departSpeed="0.00" departDelay="1.00" arrival="26.00" arrivalLane="20910676#4_2" arrivalPos="27.41" arrivalSpeed="8.95" duration="25.00" routeLength="147.17" waitingTime="0.00" waitingCount="0" stopTime="0.00" timeLoss="13.81" rerouteNo="1" devices="tripinfo_flow_Palace_bus_straight_outer.0 routing_flow_Palace_bus_straight_outer.0" vType="bus" speedFactor="1.09" vaporized=""/>
    <tripinfo id="flow_Muscat_pc_left_mid.0" depart="4.00" departLane="20910676#4_1" departPos="4.60" departSpeed="0.00" departDelay="4.00" arrival="28.00" arrivalLane="20910676#2_2" arrivalPos="18.38" arrivalSpeed="16.30" duration="24.00" routeLength="289.02" waitingTime="0.00" waitingCount="0" stopTime="0.00" timeLoss="5.71" rerouteNo="1" devices="tripinfo_flow_Muscat_pc_left_mid.0 routing_flow_Muscat_pc_left_mid.0" vType="car" speedFactor="1.05" vaporized=""/>
    <tripinfo id="flow_Maabilah_pc_right.0" depart="3.00" departLane="20910676#5_2" departPos="4.60" departSpeed="0.00" departDelay="3.00" arrival="28.00" arrivalLane="1432212744#0_0" arrivalPos="59.46" arrivalSpeed="15.37" duration="25.00" routeLength="275.68" waitingTime="0.00" waitingCount="0" stopTime="0.00" timeLoss="8.14" rerouteNo="1" devices="tripinfo_flow_Maabilah_pc_right.0 routing_flow_Maabilah_pc_right.0" vType="car" speedFactor="1.18" vaporized=""/>
    <tripinfo id="flow_Maabilah_car_0.0" depart="23.00" departLane="20910676#0_0" departPos="4.60" departSpeed="0.00" departDelay="23.00" arrival="28.00" arrivalLane="20910676#0_0" arrivalPos="14.03" arrivalSpeed="5.61" duration="5.00" routeLength="9.43" waitingTime="0.00" waitingCount="0" stopTime="0.00" timeLoss="4.16" rerouteNo="1" devices="tripinfo_flow_Maabilah_car_0.0 routing_flow_Maabilah_car_0.0" vType="car" speedFactor="1.17" vaporized=""/>
    <tripinfo id="flow_Barka_pc_uturn.0" depart="5.00" departLane="20910676#0_0" departPos="4.60" departSpeed="0.00" departDelay="5.00" arrival="30.00" arrivalLane="20910676#3_1" arrivalPos="19.83" arrivalSpeed="16.32" duration="25.00" routeLength="134.24" waitingTime="0.00" waitingCount="0" stopTime="0.00" timeLoss="16.21" rerouteNo="1" devices="tripinfo_flow_Barka_pc_uturn.0 routing_flow_Barka_pc_uturn.0" vType="car" speedFactor="1.01" vaporized=""/>
    <tripinfo id="flow_Barka_pc_straight_mid.1" depart="11.00" departLane="20910676#0_1" departPos="4.60" departSpeed="0.00" departDelay="10.02" arrival="32.00" arrivalLane="20910676#1_1" arrivalPos="33.23" arrivalSpeed="10.35" duration="21.00" routeLength="63.79" waitingTime="1.00" waitingCount="1" stopTime="0.00" timeLoss="16.75" rerouteNo="0" devices="tripinfo_flow_Barka_pc_straight_mid.1 routing_flow_Barka_pc_straight_mid.1" vType="car" speedFactor="1.00" vaporized=""/>
    <tripinfo id="flow_Muscat_pc_straight_outer.0" depart="0.00" departLane="20910676#4_0" departPos="4.60" departSpeed="0.00" departDelay="0.00" arrival="33.00" arrivalLane="20910676#1_2" arrivalPos="33.23" arrivalSpeed="13.41" duration="33.00" routeLength="259.09" waitingTime="0.00" waitingCount="0" stopTime="0.00" timeLoss="16.84" rerouteNo="1" devices="tripinfo_flow_Muscat_pc_straight_outer.0 routing_flow_Muscat_pc_straight_outer.0" vType="car" speedFactor="0.94" vaporized=""/>
    <tripinfo id="flow_Barka_pc_right_outer.0" depart="14.00" departLane="20910676#0_0" departPos="4.60" departSpeed="0.00" departDelay="14.00" arrival="33.00" arrivalLane="1432212744#0_0" arrivalPos="59.46" arrivalSpeed="15.57" duration="19.00" routeLength="135.69" waitingTime="0.00" waitingCount="0" stopTime="0.00" timeLoss="10.55" rerouteNo="1" devices="tripinfo_flow_Barka_pc_right_outer.0 routing_flow_Barka_pc_right_outer.0" vType="car" speedFactor="0.83" vaporized=""/>
    <tripinfo id="flow_Muscat_pc_uturn.0" depart="8.00" departLane="20910676#4_2" departPos="4.60" departSpeed="0.00" departDelay="8.00" arrival="33.00" arrivalLane="20910676#3_2" arrivalPos="19.83" arrivalSpeed="16.61" duration="25.00" routeLength="328.67" waitingTime="0.00" waitingCount="0" stopTime="0.00" timeLoss="5.14" rerouteNo="1" devices="tripinfo_flow_Muscat_pc_uturn.0 routing_flow_Muscat_pc_uturn.0" vType="car" speedFactor="1.18" vaporized=""/>
    <tripinfo id="flow_Muscat_pc_straight_mid.0" depart="0.00" departLane="20910676#4_1" departPos="4.60" departSpeed="0.00" departDelay="0.00" arrival="35.00" arrivalLane="20910676#1_2" arrivalPos="33.23" arrivalSpeed="13.57" duration="35.00" routeLength="259.09" waitingTime="0.00" waitingCount="0" stopTime="0.00" timeLoss="18.68" rerouteNo="1" devices="tripinfo_flow_Muscat_pc_straight_mid.0 routing_flow_Muscat_pc_straight_mid.0" vType="car" speedFactor="1.03" vaporized=""/>
    <tripinfo id="flow_Muscat_car_0.0" depart="19.00" departLane="20910676#0_0" departPos="4.60" departSpeed="0.00" departDelay="19.00" arrival="35.00" arrivalLane="20910676#1_1" arrivalPos="33.23" arrivalSpeed="12.76" duration="16.00" routeLength="63.79" waitingTime="0.00" waitingCount="0" stopTime="0.00" timeLoss="11.51" rerouteNo="0" devices="tripinfo_flow_Muscat_car_0.0 routing_flow_Muscat_car_0.0" vType="car" speedFactor="1.00" vaporized=""/>
    <tripinfo id="flow_Muscat_pc_right_outer.0" depart="2.00" departLane="20910676#4_0" departPos="4.60" departSpeed="0.00" departDelay="2.00" arrival="38.00" arrivalLane="1432212744#0_0" arrivalPos="59.46" arrivalSpeed="16.44" duration="36.00" routeLength="330.12" waitingTime="0.00" waitingCount="0" stopTime="0.00" timeLoss="15.33" rerouteNo="1" devices="tripinfo_flow_Muscat_pc_right_outer.0 routing_flow_Muscat_pc_right_outer.0" vType="car" speedFactor="1.16" vaporized=""/>
    <tripinfo id="flow_Barka_bus_straight_mid.0" depart="26.00" departLane="20910676#0_1" departPos="12.10" departSpeed="0.00" departDelay="26.00" arrival="39.00" arrivalLane="20910676#1_2" arrivalPos="33.23" arrivalSpeed="10.00" duration="13.00" routeLength="56.29" waitingTime="0.00" waitingCount="0" stopTime="0.00" timeLoss="8.36" rerouteNo="0" devices="tripinfo_flow_Barka_bus_straight_mid.0 routing_flow_Barka_bus_straight_mid.0" vType="bus" speedFactor="1.09" vaporized=""/>
    <tripinfo id="flow_Barka_truck_straight.0" depart="28.00" departLane="20910676#0_0" departPos="14.03" departSpeed="0.00" departDelay="28.00" arrival="40.00" arrivalLane="20910676#1_0" arrivalPos="33.23" arrivalSpeed="9.42" duration="12.00" routeLength="54.36" waitingTime="0.00" waitingCount="0" stopTime="0.00" timeLoss="7.54" rerouteNo="0" devices="tripinfo_flow_Barka_truck_straight.0 routing_flow_Barka_truck_straight.0" vType="truck" speedFactor="1.08" vaporized=""/>
    <tripinfo id="flow_Barka_pc_straight_mid.2" depart="31.00" departLane="20910676#0_1" departPos="4.60" departSpeed="0.00" departDelay="29.05" arrival="41.00" arrivalLane="20910676#1_2" arrivalPos="33.23" arrivalSpeed="12.55" duration="10.00" routeLength="63.79" waitingTime="0.00" waitingCount="0" stopTime="0.00" timeLoss="5.87" rerouteNo="0" devices="tripinfo_flow_Barka_pc_straight_mid.2 routing_flow_Barka_pc_straight_mid.2" vType="car" speedFactor="0.90" vaporized=""/>
    <tripinfo id="flow_Maabilah_truck_straight.0" depart="17.00" departLane="20910676#5_2" departPos="14.10" departSpeed="0.00" departDelay="17.00" arrival="43.00" arrivalLane="20910676#1_2" arrivalPos="33.23" arrivalSpeed="11.50" duration="26.00" routeLength="194.28" waitingTime="0.00" waitingCount="0" stopTime="0.00" timeLoss="12.00" rerouteNo="1" devices="tripinfo_flow_Maabilah_truck_straight.0 routing_flow_Maabilah_truck_straight.0" vType="truck" speedFactor="1.10" vaporized=""/>
    <tripinfo id="flow_Barka_pc_straight.1" depart="27.00" departLane="20910676#0_0" departPos="4.60" departSpeed="0.00" departDelay="25.68" arrival="43.00" arrivalLane="20910676#1_1" arrivalPos="33.23" arrivalSpeed="12.24" duration="16.00" routeLength="63.79" waitingTime="0.00" waitingCount="0" stopTime="0.00" timeLoss="12.06" rerouteNo="0" devices="tripinfo_flow_Barka_pc_straight.1 routing_flow_Barka_pc_straight.1" vType="car" speedFactor="1.00" vaporized=""/>
    <tripinfo id="flow_Muscat_rv_straight_mid.0" depart="13.00" departLane="20910676#4_1" departPos="6.10" departSpeed="0.00" departDelay="13.00" arrival="46.00" arrivalLane="20910676#1_2" arrivalPos="33.23" arrivalSpeed="13.88" duration="33.00" routeLength="256.72" waitingTime="0.00" waitingCount="0" stopTime="0.00" timeLoss="13.86" rerouteNo="1" devices="tripinfo_flow_Muscat_rv_straight_mid.0 routing_flow_Muscat_rv_straight_mid.0" vType="rv" speedFactor="0.88" vaporized=""/>
    <tripinfo id="flow_Barka_pc_straight_mid.3" depart="32.00" departLane="20910676#0_1" departPos="4.60" departSpeed="0.00" departDelay="29.07" arrival="47.00" arrivalLane="20910676#1_1" arrivalPos="33.23" arrivalSpeed="15.79" duration="15.00" routeLength="63.79" waitingTime="0.00" waitingCount="0" stopTime="0.00" timeLoss="10.24" rerouteNo="0" devices="tripinfo_flow_Barka_pc_straight_mid.3 routing_flow_Barka_pc_straight_mid.3" vType="car" speedFactor="1.08" vaporized=""/>
    <tripinfo id="flow_Barka_pc_straight_outer.1" depart="32.00" departLane="20910676#0_0" departPos="4.60" departSpeed="0.00" departDelay="30.33" arrival="49.00" arrivalLane="20910676#1_1" arrivalPos="33.23" arrivalSpeed="13.61" duration="17.00" routeLength="63.79" waitingTime="0.00" waitingCount="0" stopTime="0.00" timeLoss="12.49" rerouteNo="0" devices="tripinfo_flow_Barka_pc_straight_outer.1 routing_flow_Barka_pc_straight_outer.1" vType="car" speedFactor="1.02" vaporized=""/>
    <tripinfo id="flow_Barka_pc_straight_mid.4" depart="36.00" departLane="20910676#0_1" departPos="4.60" departSpeed="0.00" departDelay="32.09" arrival="49.00" arrivalLane="20910676#1_2" arrivalPos="33.23" arrivalSpeed="15.79" duration="13.00" routeLength="63.79" waitingTime="0.00" waitingCount="0" stopTime="0.00" timeLoss="8.40" rerouteNo="0" devices="tripinfo_flow_Barka_pc_straight_mid.4 routing_flow_Barka_pc_straight_mid.4" vType="car" speedFactor="0.94" vaporized=""/>
    <tripinfo id="flow_Barka_pc_straight_mid.5" depart="41.00" departLane="20910676#0_1" departPos="4.60" departSpeed="0.00" departDelay="36.12" arrival="50.00" arrivalLane="20910676#1_2" arrivalPos="33.23" arrivalSpeed="15.42" duration="9.00" routeLength="63.79" waitingTime="0.00" waitingCount="0" stopTime="0.00" timeLoss="5.16" rerouteNo="0" devices="tripinfo_flow_Barka_pc_straight_mid.5 routing_flow_Barka_pc_straight_mid.5" vType="car" speedFactor="1.04" vaporized=""/>
    <tripinfo id="flow_Barka_pc_straight.2" depart="38.00" departLane="20910676#0_0" departPos="4.60" departSpeed="0.00" departDelay="35.35" arrival="51.00" arrivalLane="20910676#1_1" arrivalPos="33.23" arrivalSpeed="13.83" duration="13.00" routeLength="63.79" waitingTime="0.00" waitingCount="0" stopTime="0.00" timeLoss="8.60" rerouteNo="0" devices="tripinfo_flow_Barka_pc_straight.2 routing_flow_Barka_pc_straight.2" vType="car" speedFactor="0.97" vaporized=""/>
    <tripinfo id="flow_Muscat_truck_left_mid.0" depart="6.00" departLane="20910676#4_1" departPos="14.10" departSpeed="0.00" departDelay="6.00" arrival="55.00" arrivalLane="20910676#2_2" arrivalPos="18.38" arrivalSpeed="13.83" duration="49.00" routeLength="279.52" waitingTime="0.00" waitingCount="0" stopTime="0.00" timeLoss="28.86" rerouteNo="1" devices="tripinfo_flow_Muscat_truck_left_mid.0 routing_flow_Muscat_truck_left_mid.0" vType="truck" speedFactor="1.12" vaporized=""/>
    <tripinfo id="flow_Muscat_truck_straight_outer.0" depart="9.00" departLane="20910676#4_0" departPos="14.10" departSpeed="0.00" departDelay="9.00" arrival="56.00" arrivalLane="20910676#1_2" arrivalPos="33.23" arrivalSpeed="13.03" duration="47.00" routeLength="248.72" waitingTime="0.00" waitingCount="0" stopTime="0.00" timeLoss="28.35" rerouteNo="1" devices="tripinfo_flow_Muscat_truck_straight_outer.0 routing_flow_Muscat_truck_straight_outer.0" vType="truck" speedFactor="1.02" vaporized=""/>
    <tripinfo id="flow_Barka_pc_straight_mid.6" depart="42.00" departLane="20910676#0_1" departPos="4.60" departSpeed="0.00" departDelay="36.14" arrival="56.00" arrivalLane="20910676#1_1" arrivalPos="33.23" arrivalSpeed="9.09" duration="14.00" routeLength="63.79" waitingTime="0.00" waitingCount="0" stopTime="0.00" timeLoss="10.07" rerouteNo="0" devices="tripinfo_flow_Barka_pc_straight_mid.6 routing_flow_Barka_pc_straight_mid.6" vType="car" speedFactor="0.94" vaporized=""/>
    <tripinfo id="flow_Barka_pc_straight.3" depart="43.00" departLane="20910676#0_0" departPos="4.60" departSpeed="0.00" departDelay="39.03" arrival="58.00" arrivalLane="20910676#1_1" arrivalPos="33.23" arrivalSpeed="11.50" duration="15.00" routeLength="63.79" waitingTime="0.00" waitingCount="0" stopTime="0.00" timeLoss="10.91" rerouteNo="0" devices="tripinfo_flow_Barka_pc_straight.3 routing_flow_Barka_pc_straight.3" vType="car" speedFactor="0.99" vaporized=""/>
    <tripinfo id="flow_Muscat_pc_straight.1" depart="25.00" departLane="20910676#4_2" departPos="4.60" departSpeed="0.00" departDelay="21.85" arrival="58.00" arrivalLane="20910676#1_2" arrivalPos="33.23" arrivalSpeed="15.66" duration="33.00" routeLength="258.22" waitingTime="0.00" waitingCount="0" stopTime="0.00" timeLoss="16.84" rerouteNo="1" devices="tripinfo_flow_Muscat_pc_straight.1 routing_flow_Muscat_pc_straight.1" vType="car" speedFactor="0.91" vaporized=""/>
    <tripinfo id="flow_Barka_pc_straight_mid.7" depart="45.00" departLane="20910676#0_1" departPos="4.60" departSpeed="0.00" departDelay="38.16" arrival="61.00" arrivalLane="20910676#1_1" arrivalPos="33.23" arrivalSpeed="13.39" duration="16.00" routeLength="63.79" waitingTime="0.00" waitingCount="0" stopTime="0.00" timeLoss="11.39" rerouteNo="0" devices="tripinfo_flow_Barka_pc_straight_mid.7 routing_flow_Barka_pc_straight_mid.7" vType="car" speedFactor="1.01" vaporized=""/>
    <tripinfo id="flow_Muscat_rv_left_mid.0" depart="26.00" departLane="20910676#4_1" departPos="6.10" departSpeed="0.00" departDelay="26.00" arrival="62.00" arrivalLane="20910676#2_2" arrivalPos="18.38" arrivalSpeed="13.49" duration="36.00" routeLength="287.52" waitingTime="0.00" waitingCount="0" stopTime="0.00" timeLoss="15.16" rerouteNo="1" devices="tripinfo_flow_Muscat_rv_left_mid.0 routing_flow_Muscat_rv_left_mid.0" vType="rv" speedFactor="0.94" vaporized=""/>
    <tripinfo id="flow_Muscat_pc_straight_outer.1" depart="19.00" departLane="20910676#4_0" departPos="4.60" departSpeed="0.00" departDelay="16.82" arrival="62.00" arrivalLane="20910676#1_2" arrivalPos="33.23" arrivalSpeed="15.58" duration="43.00" routeLength="258.22" waitingTime="0.00" waitingCount="0" stopTime="0.00" timeLoss="26.88" rerouteNo="1" devices="tripinfo_flow_Muscat_pc_straight_outer.1 routing_flow_Muscat_pc_straight_outer.1" vType="car" speedFactor="1.02" vaporized=""/>
    <tripinfo id="flow_Barka_pc_straight_outer.2" depart="48.00" departLane="20910676#0_0" departPos="4.60" departSpeed="0.00" departDelay="44.66" arrival="62.00" arrivalLane="20910676#1_1" arrivalPos="33.23" arrivalSpeed="12.79" duration="14.00" routeLength="63.79" waitingTime="0.00" waitingCount="0" stopTime="0.00" timeLoss="9.93" rerouteNo="0" devices="tripinfo_flow_Barka_pc_straight_outer.2 routing_flow_Barka_pc_straight_outer.2" vType="car" speedFactor="0.88" vaporized=""/>
    <tripinfo id="flow_Muscat_bus_straight_mid.0" depart="28.00" departLane="20910676#4_1" departPos="12.10" departSpeed="0.00" departDelay="28.00" arrival="64.00" arrivalLane="20910676#1_2" arrivalPos="33.23" arrivalSpeed="13.88" duration="36.00" routeLength="250.72" waitingTime="0.00" waitingCount="0" stopTime="0.00" timeLoss="17.39" rerouteNo="1" devices="tripinfo_flow_Muscat_bus_straight_mid.0 routing_flow_Muscat_bus_straight_mid.0" vType="bus" speedFactor="0.93" vaporized=""/>
    <tripinfo id="flow_Palace_pc_straight_outer.1" depart="48.00" departLane="20910676#1_0" departPos="4.60" departSpeed="0.00" departDelay="0.63" arrival="65.00" arrivalLane="20910676#4_2" arrivalPos="27.41" arrivalSpeed="12.44" duration="17.00" routeLength="154.67" waitingTime="0.00" waitingCount="0" stopTime="0.00" timeLoss="7.63" rerouteNo="1" devices="tripinfo_flow_Palace_pc_straight_outer.1 routing_flow_Palace_pc_straight_outer.1" vType="car" speedFactor="1.09" vaporized=""/>
    <tripinfo id="flow_Muscat_pc_straight.2" depart="35.00" departLane="20910676#4_2" departPos="4.60" departSpeed="0.00" departDelay="28.71" arrival="66.00" arrivalLane="20910676#1_2" arrivalPos="33.23" arrivalSpeed="16.45" duration="31.00" routeLength="258.22" waitingTime="0.00" waitingCount="0" stopTime="0.00" timeLoss="14.83" rerouteNo="1" devices="tripinfo_flow_Muscat_pc_straight.2 routing_flow_Muscat_pc_straight.2" vType="car" speedFactor="1.02" vaporized=""/>
    <tripinfo id="flow_Barka_pc_straight_mid.8" depart="50.00" departLane="20910676#0_1" departPos="4.60" departSpeed="0.00" departDelay="42.18" arrival="66.00" arrivalLane="20910676#1_1" arrivalPos="33.23" arrivalSpeed="13.10" duration="16.00" routeLength="63.79" waitingTime="0.00" waitingCount="0" stopTime="0.00" timeLoss="11.49" rerouteNo="0" devices="tripinfo_flow_Barka_pc_straight_mid.8 routing_flow_Barka_pc_straight_mid.8" vType="car" speedFactor="0.98" vaporized=""/>
    <tripinfo id="flow_Muscat_pc_straight_mid.1" depart="35.00" departLane="20910676#4_1" departPos="4.60" departSpeed="0.00" departDelay="33.60" arrival="69.00" arrivalLane="20910676#1_2" arrivalPos="33.23" arrivalSpeed="15.83" duration="34.00" routeLength="258.22" waitingTime="1.00" waitingCount="1" stopTime="0.00" timeLoss="18.13" rerouteNo="1" devices="tripinfo_flow_Muscat_pc_straight_mid.1 routing_flow_Muscat_pc_straight_mid.1" vType="car" speedFactor="1.14" vaporized=""/>
    <tripinfo id="flow_Barka_pc_straight.4" depart="53.00" departLane="20910676#0_0" departPos="4.60" departSpeed="0.00" departDelay="47.70" arrival="69.00" arrivalLane="20910676#1_1" arrivalPos="33.23" arrivalSpeed="12.17" duration="16.00" routeLength="63.79" waitingTime="0.00" waitingCount="0" stopTime="0.00" timeLoss="11.57" rerouteNo="0" devices="tripinfo_flow_Barka_pc_straight.4 routing_flow_Barka_pc_straight.4" vType="car" speedFactor="0.97" vaporized=""/>
    <tripinfo id="flow_Barka_pc_straight_mid.9" depart="54.00" departLane="20910676#0_1" departPos="4.60" departSpeed="0.00" departDelay="45.21" arrival="70.00" arrivalLane="20910676#1_1" arrivalPos="33.23" arrivalSpeed="13.16" duration="16.00" routeLength="63.79" waitingTime="1.00" waitingCount="1" stopTime="0.00" timeLoss="12.09" rerouteNo="0" devices="tripinfo_flow_Barka_pc_straight_mid.9 routing_flow_Barka_pc_straight_mid.9" vType="car" speedFactor="1.02" vaporized=""/>
    <tripinfo id="flow_Muscat_pc_straight_mid.2" depart="41.00" departLane="20910676#4_1" departPos="4.60" departSpeed="0.00" departDelay="38.21" arrival="71.00" arrivalLane="20910676#1_2" arrivalPos="33.23" arrivalSpeed="16.13" duration="30.00" routeLength="258.22" waitingTime="0.00" waitingCount="0" stopTime="0.00" timeLoss="13.72" rerouteNo="1" devices="tripinfo_flow_Muscat_pc_straight_mid.2 routing_flow_Muscat_pc_straight_mid.2" vType="car" speedFactor="1.12" vaporized=""/>
    <tripinfo id="flow_Barka_pc_straight_outer.3" depart="58.00" departLane="20910676#0_0" departPos="4.60" departSpeed="0.00" departDelay="52.98" arrival="72.00" arrivalLane="20910676#1_1" arrivalPos="33.23" arrivalSpeed="14.15" duration="14.00" routeLength="63.79" waitingTime="0.00" waitingCount="0" stopTime="0.00" timeLoss="9.91" rerouteNo="0" devices="tripinfo_flow_Barka_pc_straight_outer.3 routing_flow_Barka_pc_straight_outer.3" vType="car" speedFactor="0.96" vaporized=""/>
    <tripinfo id="flow_Muscat_pc_uturn.1" depart="38.00" departLane="20910676#4_2" departPos="4.60" departSpeed="0.00" departDelay="31.18" arrival="72.00" arrivalLane="20910676#3_2" arrivalPos="19.83" arrivalSpeed="16.35" duration="34.00" routeLength="328.67" waitingTime="0.00" waitingCount="0" stopTime="0.00" timeLoss="13.62" rerouteNo="1" devices="tripinfo_flow_Muscat_pc_uturn.1 routing_flow_Muscat_pc_uturn.1" vType="car" speedFactor="0.97" vaporized=""/>
    <tripinfo id="flow_Muscat_pc_straight_mid.4" depart="46.00" departLane="20910676#4_1" departPos="4.60" departSpeed="0.00" departDelay="40.41" arrival="74.00" arrivalLane="20910676#1_2" arrivalPos="33.23" arrivalSpeed="15.67" duration="28.00" routeLength="258.22" waitingTime="0.00" waitingCount="0" stopTime="0.00" timeLoss="11.94" rerouteNo="1" devices="tripinfo_flow_Muscat_pc_straight_mid.4 routing_flow_Muscat_pc_straight_mid.4" vType="car" speedFactor="1.06" vaporized=""/>
    <tripinfo id="flow_Muscat_pc_left.1" depart="44.00" departLane="20910676#4_2" departPos="4.60" departSpeed="0.00" departDelay="36.50" arrival="74.00" arrivalLane="20910676#2_2" arrivalPos="18.38" arrivalSpeed="15.46" duration="30.00" routeLength="289.02" waitingTime="0.00" waitingCount="0" stopTime="0.00" timeLoss="12.41" rerouteNo="1" devices="tripinfo_flow_Muscat_pc_left.1 routing_flow_Muscat_pc_left.1" vType="car" speedFactor="1.00" vaporized=""/>
    <tripinfo id="flow_Muscat_pc_straight_mid.5" depart="48.00" departLane="20910676#4_1" departPos="4.60" departSpeed="0.00" departDelay="41.02" arrival="75.00" arrivalLane="20910676#1_2" arrivalPos="33.23" arrivalSpeed="16.00" duration="27.00" routeLength="258.22" waitingTime="0.00" waitingCount="0" stopTime="0.00" timeLoss="11.45" rerouteNo="1" devices="tripinfo_flow_Muscat_pc_straight_mid.5 routing_flow_Muscat_pc_straight_mid.5" vType="car" speedFactor="1.09" vaporized=""/>
    <tripinfo id="flow_Barka_pc_straight_mid.10" depart="60.00" departLane="20910676#0_1" departPos="4.60" departSpeed="0.00" departDelay="50.23" arrival="75.00" arrivalLane="20910676#1_1" arrivalPos="33.23" arrivalSpeed="14.72" duration="15.00" routeLength="63.79" waitingTime="1.00" waitingCount="1" stopTime="0.00" timeLoss="10.72" rerouteNo="0" devices="tripinfo_flow_Barka_pc_straight_mid.10 routing_flow_Barka_pc_straight_mid.10" vType="car" speedFactor="1.09" vaporized=""/>
    <tripinfo id="flow_Barka_pc_straight.5" depart="64.00" departLane="20910676#0_0" departPos="4.60" departSpeed="0.00" departDelay="57.38" arrival="77.00" arrivalLane="20910676#1_1" arrivalPos="33.23" arrivalSpeed="15.09" duration="13.00" routeLength="63.79" waitingTime="0.00" waitingCount="0" stopTime="0.00" timeLoss="8.55" rerouteNo="0" devices="tripinfo_flow_Barka_pc_straight.5 routing_flow_Barka_pc_straight.5" vType="car" speedFactor="1.03" vaporized=""/>
    <tripinfo id="flow_Muscat_pc_straight_outer.5" depart="50.00" departLane="20910676#4_0" departPos="4.60" departSpeed="0.00" departDelay="39.08" arrival="77.00" arrivalLane="20910676#1_2" arrivalPos="33.23" arrivalSpeed="16.29" duration="27.00" routeLength="258.22" waitingTime="0.00" waitingCount="0" stopTime="0.00" timeLoss="11.11" rerouteNo="1" devices="tripinfo_flow_Muscat_pc_straight_outer.5 routing_flow_Muscat_pc_straight_outer.5" vType="car" speedFactor="0.96" vaporized=""/>