<?xml version="1.0" encoding="UTF-8"?>

<!-- generated on 2025-11-20 02:54:53 by Eclipse SUMO GUI Version 1.21.0
<sumoConfiguration xmlns:xsi="http://www.w3.org/2001/XMLSchema-instance" xsi:noNamespaceSchemaLocation="http://sumo.dlr.de/xsd/sumoConfiguration.xsd">

    <input>
        <net-file value="C:\Users\X1\Documents\SUMO\20th Nov 2025\scenario1.net.xml"/>
        <route-files value="C:\Users\X1\Documents\SUMO\20th Nov 2025\scenario1.rou.xml"/>
    </input>

    <output>
        <summary-output value="C:\Users\X1\Documents\SUMO\20th Nov 2025\summary.xml"/>
        <tripinfo-output value="C:\Users\X1\Documents\SUMO\20th Nov 2025\tripinfo.xml"/>
    </output>

    <time>
        <begin value="0"/>
        <end value="15300"/>
    </time>

    <report>
        <verbose value="true"/>
        <no-step-log value="true"/>
    </report>

    <gui_only>
        <start value="true"/>
    </gui_only>

</sumoConfiguration>
-->

<tripinfos xmlns:xsi="http://www.w3.org/2001/XMLSchema-instance" xsi:noNamespaceSchemaLocation="http://sumo.dlr.de/xsd/tripinfo_file.xsd">
    <tripinfo id="maabilah_pc_straight.0" depart="0.00" departLane="39450217.13_0" departPos="4.60" departSpeed="0.00" departDelay="0.00" arrival="21.00" arrivalLane="1432212744#0_0" arrivalPos="57.74" arrivalSpeed="15.75" duration="21.00" routeLength="245.04" waitingTime="0.00" waitingCount="0" stopTime="0.00" timeLoss="5.15" rerouteNo="1" devices="tripinfo_maabilah_pc_straight.0 routing_maabilah_pc_straight.0" vType="car" speedFactor="1.01" vaporized=""/>
    <tripinfo id="palace_pc_straight.0" depart="0.00" departLane="39412251#1.78_0" departPos="4.60" departSpeed="0.00" departDelay="0.00" arrival="21.00" arrivalLane="39450216_0" arrivalPos="27.24" arrivalSpeed="16.36" duration="21.00" routeLength="243.83" waitingTime="0.00" waitingCount="0" stopTime="0.00" timeLoss="5.45" rerouteNo="1" devices="tripinfo_palace_pc_straight.0 routing_palace_pc_straight.0" vType="car" speedFactor="0.92" vaporized=""/>
    <tripinfo id="palace_pc_right.0" depart="3.00" departLane="39412251#1.78_0" departPos="4.60" departSpeed="0.00" departDelay="3.00" arrival="24.00" arrivalLane="162437609#0_0" arrivalPos="123.63" arrivalSpeed="16.39" duration="21.00" routeLength="246.30" waitingTime="0.00" waitingCount="0" stopTime="0.00" timeLoss="5.38" rerouteNo="1" devices="tripinfo_palace_pc_right.0 routing_palace_pc_right.0" vType="car" speedFactor="1.13" vaporized=""/>
    <tripinfo id="muscat_pc_right.0" depart="8.00" departLane="20910781#1.199_2" departPos="4.60" departSpeed="0.00" departDelay="8.00" arrival="27.00" arrivalLane="1432212744#0_0" arrivalPos="57.74" arrivalSpeed="16.55" duration="19.00" routeLength="218.69" waitingTime="0.00" waitingCount="0" stopTime="0.00" timeLoss="5.48" rerouteNo="1" devices="tripinfo_muscat_pc_right.0 routing_muscat_pc_right.0" vType="car" speedFactor="1.12" vaporized=""/>
    <tripinfo id="barka_pc_right.0" depart="9.00" departLane="14465423#1.76_2" departPos="4.60" departSpeed="0.00" departDelay="9.00" arrival="29.00" arrivalLane="39450216_0" arrivalPos="27.24" arrivalSpeed="15.88" duration="20.00" routeLength="205.88" waitingTime="0.00" waitingCount="0" stopTime="0.00" timeLoss="6.76" rerouteNo="1" devices="tripinfo_barka_pc_right.0 routing_barka_pc_right.0" vType="car" speedFactor="1.08" vaporized=""/>
    <tripinfo id="maabilah_pc_left.0" depart="3.00" departLane="39450217.13_0" departPos="4.60" departSpeed="0.00" departDelay="3.00" arrival="32.00" arrivalLane="162437609#0_1" arrivalPos="123.63" arrivalSpeed="15.97" duration="29.00" routeLength="395.38" waitingTime="0.00" waitingCount="0" stopTime="0.00" timeLoss="4.11" rerouteNo="1" devices="tripinfo_maabilah_pc_left.0 routing_maabilah_pc_left.0" vType="car" speedFactor="0.97" vaporized=""/>
    <tripinfo id="palace_pc_left.0" depart="2.00" departLane="39412251#1.78_0" departPos="4.60" departSpeed="0.00" departDelay="2.00" arrival="33.00" arrivalLane="20911568_1" arrivalPos="104.83" arrivalSpeed="16.41" duration="31.00" routeLength="405.90" waitingTime="0.00" waitingCount="0" stopTime="0.00" timeLoss="5.72" rerouteNo="1" devices="tripinfo_palace_pc_left.0 routing_palace_pc_left.0" vType="car" speedFactor="0.95" vaporized=""/>
    <tripinfo id="muscat_pc_straight.0" depart="0.00" departLane="20910781#1.199_2" departPos="4.60" departSpeed="0.00" departDelay="0.00" arrival="36.00" arrivalLane="162437609#0_1" arrivalPos="123.63" arrivalSpeed="16.06" duration="36.00" routeLength="369.03" waitingTime="3.00" waitingCount="1" stopTime="0.00" timeLoss="12.94" rerouteNo="1" devices="tripinfo_muscat_pc_straight.0 routing_muscat_pc_straight.0" vType="car" speedFactor="1.09" vaporized=""/>
    <tripinfo id="muscat_pc_left.0" depart="2.00" departLane="20910781#1.199_2" departPos="4.60" departSpeed="0.00" departDelay="2.00" arrival="37.00" arrivalLane="39450216_0" arrivalPos="27.24" arrivalSpeed="15.43" duration="35.00" routeLength="366.37" waitingTime="1.00" waitingCount="1" stopTime="0.00" timeLoss="13.02" rerouteNo="1" devices="tripinfo_muscat_pc_left.0 routing_muscat_pc_left.0" vType="car" speedFactor="1.03" vaporized=""/>
    <tripinfo id="barka_pc_straight.0" depart="0.00" departLane="14465423#1.76_2" departPos="4.60" departSpeed="0.00" departDelay="0.00" arrival="40.00" arrivalLane="20911568_1" arrivalPos="104.83" arrivalSpeed="16.55" duration="40.00" routeLength="367.95" waitingTime="3.00" waitingCount="1" stopTime="0.00" timeLoss="17.07" rerouteNo="1" devices="tripinfo_barka_pc_straight.0 routing_barka_pc_straight.0" vType="car" speedFactor="1.06" vaporized=""/>
    <tripinfo id="maabilah_bus_straight.0" depart="13.00" departLane="39450217.13_0" departPos="12.10" departSpeed="0.00" departDelay="13.00" arrival="43.00" arrivalLane="1432212744#0_0" arrivalPos="57.74" arrivalSpeed="13.88" duration="30.00" routeLength="238.41" waitingTime="0.00" waitingCount="0" stopTime="0.00" timeLoss="12.08" rerouteNo="1" devices="tripinfo_maabilah_bus_straight.0 routing_maabilah_bus_straight.0" vType="bus" speedFactor="0.83" vaporized=""/>
    <tripinfo id="barka_pc_left.0" depart="3.00" departLane="14465423#1.76_2" departPos="4.60" departSpeed="0.00" departDelay="3.00" arrival="45.00" arrivalLane="1432212744#0_0" arrivalPos="57.74" arrivalSpeed="15.54" duration="42.00" routeLength="421.15" waitingTime="2.00" waitingCount="1" stopTime="0.00" timeLoss="16.21" rerouteNo="1" devices="tripinfo_barka_pc_left.0 routing_barka_pc_left.0" vType="car" speedFactor="0.94" vaporized=""/>
    <tripinfo id="maabilah_truck_left.0" depart="7.00" departLane="39450217.13_0" departPos="14.10" departSpeed="0.00" departDelay="7.00" arrival="45.00" arrivalLane="162437609#0_1" arrivalPos="123.63" arrivalSpeed="13.65" duration="38.00" routeLength="385.88" waitingTime="0.00" waitingCount="0" stopTime="0.00" timeLoss="9.53" rerouteNo="1" devices="tripinfo_maabilah_truck_left.0 routing_maabilah_truck_left.0" vType="truck" speedFactor="0.89" vaporized=""/>
    <tripinfo id="muscat_pc_uturn.0" depart="5.00" departLane="20910781#1.199_2" departPos="4.60" departSpeed="0.00" departDelay="5.00" arrival="49.00" arrivalLane="20911568_1" arrivalPos="104.83" arrivalSpeed="16.26" duration="44.00" routeLength="528.44" waitingTime="0.00" waitingCount="0" stopTime="0.00" timeLoss="11.68" rerouteNo="1" devices="tripinfo_muscat_pc_uturn.0 routing_muscat_pc_uturn.0" vType="car" speedFactor="1.05" vaporized=""/>
    <tripinfo id="muscat_truck_straight.0" depart="12.00" departLane="20910781#1.199_2" departPos="14.10" departSpeed="0.00" departDelay="12.00" arrival="51.00" arrivalLane="162437609#0_1" arrivalPos="123.63" arrivalSpeed="13.31" duration="39.00" routeLength="359.53" waitingTime="0.00" waitingCount="0" stopTime="0.00" timeLoss="12.29" rerouteNo="1" devices="tripinfo_muscat_truck_straight.0 routing_muscat_truck_straight.0" vType="truck" speedFactor="0.99" vaporized=""/>
    <tripinfo id="barka_pc_uturn.0" depart="6.00" departLane="14465423#1.76_2" departPos="4.60" departSpeed="0.00" departDelay="6.00" arrival="54.00" arrivalLane="162437609#0_1" arrivalPos="123.63" arrivalSpeed="16.64" duration="48.00" routeLength="571.49" waitingTime="0.00" waitingCount="0" stopTime="0.00" timeLoss="13.02" rerouteNo="1" devices="tripinfo_barka_pc_uturn.0 routing_barka_pc_uturn.0" vType="car" speedFactor="1.01" vaporized=""/>
    <tripinfo id="barka_truck_straight.0" depart="13.00" departLane="14465423#1.76_2" departPos="14.10" departSpeed="0.00" departDelay="13.00" arrival="62.00" arrivalLane="20911568_1" arrivalPos="104.83" arrivalSpeed="13.85" duration="49.00" routeLength="358.45" waitingTime="1.00" waitingCount="1" stopTime="0.00" timeLoss="22.63" rerouteNo="1" devices="tripinfo_barka_truck_straight.0 routing_barka_truck_straight.0" vType="truck" speedFactor="1.03" vaporized=""/>
    <tripinfo id="maabilah_bus_left.0" depart="19.00" departLane="39450217.13_0" departPos="12.10" departSpeed="0.00" departDelay="19.00" arrival="64.00" arrivalLane="162437609#0_1" arrivalPos="123.63" arrivalSpeed="13.20" duration="45.00" routeLength="387.88" waitingTime="0.00" waitingCount="0" stopTime="0.00" timeLoss="15.99" rerouteNo="1" devices="tripinfo_maabilah_bus_left.0 routing_maabilah_bus_left.0" vType="bus" speedFactor="0.87" vaporized=""/>
    <tripinfo id="barka_bus_right.0" depart="43.00" departLane="14465423#1.76_2" departPos="12.10" departSpeed="0.00" departDelay="43.00" arrival="67.00" arrivalLane="39450216_0" arrivalPos="27.24" arrivalSpeed="13.21" duration="24.00" routeLength="198.38" waitingTime="0.00" waitingCount="0" stopTime="0.00" timeLoss="9.20" rerouteNo="1" devices="tripinfo_barka_bus_right.0 routing_barka_bus_right.0" vType="bus" speedFactor="0.86" vaporized=""/>
    <tripinfo id="barka_bus_straight.0" depart="25.00" departLane="14465423#1.76_2" departPos="12.10" departSpeed="0.00" departDelay="25.00" arrival="68.00" arrivalLane="20911568_1" arrivalPos="104.83" arrivalSpeed="13.89" duration="43.00" routeLength="360.45" waitingTime="0.00" waitingCount="0" stopTime="0.00" timeLoss="16.58" rerouteNo="1" devices="tripinfo_barka_bus_straight.0 routing_barka_bus_straight.0" vType="bus" speedFactor="1.05" vaporized=""/>
    <tripinfo id="barka_bus_left.0" depart="31.00" departLane="14465423#1.76_2" departPos="12.10" departSpeed="0.00" departDelay="31.00" arrival="71.00" arrivalLane="1432212744#0_0" arrivalPos="57.74" arrivalSpeed="13.69" duration="40.00" routeLength="413.65" waitingTime="0.00" waitingCount="0" stopTime="0.00" timeLoss="9.59" rerouteNo="1" devices="tripinfo_barka_bus_left.0 routing_barka_bus_left.0" vType="bus" speedFactor="0.89" vaporized=""/>
    <tripinfo id="muscat_bus_straight.0" depart="33.00" departLane="20910781#1.199_2" departPos="12.10" departSpeed="0.00" departDelay="33.00" arrival="73.00" arrivalLane="162437609#0_1" arrivalPos="123.63" arrivalSpeed="13.42" duration="40.00" routeLength="361.53" waitingTime="0.00" waitingCount="0" stopTime="0.00" timeLoss="13.76" rerouteNo="1" devices="tripinfo_muscat_bus_straight.0 routing_muscat_bus_straight.0" vType="bus" speedFactor="0.94" vaporized=""/>
    <tripinfo id="muscat_bus_right.0" depart="50.00" departLane="20910781#1.199_2" departPos="12.10" departSpeed="0.00" departDelay="50.00" arrival="75.00" arrivalLane="1432212744#0_0" arrivalPos="57.74" arrivalSpeed="13.27" duration="25.00" routeLength="211.19" waitingTime="0.00" waitingCount="0" stopTime="0.00" timeLoss="8.87" rerouteNo="1" devices="tripinfo_muscat_bus_right.0 routing_muscat_bus_right.0" vType="bus" speedFactor="1.02" vaporized=""/>
    <tripinfo id="muscat_truck_left.0" depart="19.00" departLane="20910781#1.199_2" departPos="14.10" departSpeed="0.00" departDelay="19.00" arrival="76.00" arrivalLane="39450216_0" arrivalPos="27.24" arrivalSpeed="13.73" duration="57.00" routeLength="356.87" waitingTime="7.00" waitingCount="1" stopTime="0.00" timeLoss="30.74" rerouteNo="1" devices="tripinfo_muscat_truck_left.0 routing_muscat_truck_left.0" vType="truck" speedFactor="0.93" vaporized=""/>
    <tripinfo id="barka_pc_straight.1" depart="47.00" departLane="14465423#1.76_2" departPos="4.60" departSpeed="0.00" departDelay="45.32" arrival="77.00" arrivalLane="20911568_1" arrivalPos="104.83" arrivalSpeed="16.66" duration="30.00" routeLength="367.95" waitingTime="0.00" waitingCount="0" stopTime="0.00" timeLoss="7.16" rerouteNo="1" devices="tripinfo_barka_pc_straight.1 routing_barka_pc_straight.1" vType="car" speedFactor="0.93" vaporized=""/>
    <tripinfo id="barka_truck_uturn.0" depart="19.00" departLane="14465423#1.76_2" departPos="14.10" departSpeed="0.00" departDelay="19.00" arrival="79.00" arrivalLane="162437609#0_1" arrivalPos="123.63" arrivalSpeed="13.84" duration="60.00" routeLength="561.99" waitingTime="0.00" waitingCount="0" stopTime="0.00" timeLoss="19.43" rerouteNo="1" devices="tripinfo_barka_truck_uturn.0 routing_barka_truck_uturn.0" vType="truck" speedFactor="0.83" vaporized=""/>
    <tripinfo id="barka_pc_straight.2" depart="50.00" departLane="14465423#1.76_2" departPos="4.60" departSpeed="0.00" departDelay="46.63" arrival="79.00" arrivalLane="20911568_1" arrivalPos="104.83" arrivalSpeed="16.67" duration="29.00" routeLength="367.95" waitingTime="0.00" waitingCount="0" stopTime="0.00" timeLoss="5.96" rerouteNo="1" devices="tripinfo_barka_pc_straight.2 routing_barka_pc_straight.2" vType="car" speedFactor="1.15" vaporized=""/>
    <tripinfo id="barka_pc_straight.3" depart="53.00" departLane="14465423#1.76_2" departPos="4.60" departSpeed="0.00" departDelay="47.95" arrival="81.00" arrivalLane="20911568_1" arrivalPos="104.83" arrivalSpeed="16.47" duration="28.00" routeLength="367.95" waitingTime="0.00" waitingCount="0" stopTime="0.00" timeLoss="5.77" rerouteNo="1" devices="tripinfo_barka_pc_straight.3 routing_barka_pc_straight.3" vType="car" speedFactor="1.01" vaporized=""/>
    <tripinfo id="muscat_pc_straight.1" depart="54.00" departLane="20910781#1.199_2" departPos="4.60" departSpeed="0.00" departDelay="51.22" arrival="83.00" arrivalLane="162437609#0_1" arrivalPos="123.63" arrivalSpeed="15.39" duration="29.00" routeLength="369.03" waitingTime="0.00" waitingCount="0" stopTime="0.00" timeLoss="6.02" rerouteNo="1" devices="tripinfo_muscat_pc_straight.1 routing_muscat_pc_straight.1" vType="car" speedFactor="1.18" vaporized=""/>
    <tripinfo id="barka_bus_uturn.0" depart="37.00" departLane="14465423#1.76_2" departPos="12.10" departSpeed="0.00" departDelay="37.00" arrival="90.00" arrivalLane="162437609#0_1" arrivalPos="123.63" arrivalSpeed="13.24" duration="53.00" routeLength="563.99" waitingTime="0.00" waitingCount="0" stopTime="0.00" timeLoss="11.56" rerouteNo="1" devices="tripinfo_barka_bus_uturn.0 routing_barka_bus_uturn.0" vType="bus" speedFactor="0.94" vaporized=""/>
    <tripinfo id="barka_pc_straight.4" depart="56.00" departLane="14465423#1.76_2" departPos="4.60" departSpeed="0.00" departDelay="49.27" arrival="90.00" arrivalLane="20911568_1" arrivalPos="104.83" arrivalSpeed="16.07" duration="34.00" routeLength="367.95" waitingTime="0.00" waitingCount="0" stopTime="0.00" timeLoss="11.71" rerouteNo="1" devices="tripinfo_barka_pc_straight.4 routing_barka_pc_straight.4" vType="car" speedFactor="0.99" vaporized=""/>
    <tripinfo id="muscat_pc_straight.2" depart="57.00" departLane="20910781#1.199_2" departPos="4.60" departSpeed="0.00" departDelay="51.44" arrival="92.00" arrivalLane="162437609#0_1" arrivalPos="123.63" arrivalSpeed="16.15" duration="35.00" routeLength="369.03" waitingTime="0.00" waitingCount="0" stopTime="0.00" timeLoss="12.14" rerouteNo="1" devices="tripinfo_muscat_pc_straight.2 routing_muscat_pc_straight.2" vType="car" speedFactor="1.17" vaporized=""/>
    <tripinfo id="barka_pc_straight.5" depart="59.00" departLane="14465423#1.76_2" departPos="4.60" departSpeed="0.00" departDelay="50.59" arrival="92.00" arrivalLane="20911568_1" arrivalPos="104.83" arrivalSpeed="15.45" duration="33.00" routeLength="367.95" waitingTime="0.00" waitingCount="0" stopTime="0.00" timeLoss="10.68" rerouteNo="1" devices="tripinfo_barka_pc_straight.5 routing_barka_pc_straight.5" vType="car" speedFactor="1.02" vaporized=""/>
    <tripinfo id="muscat_pc_straight.4" depart="63.00" departLane="20910781#1.199_2" departPos="4.60" departSpeed="0.00" departDelay="51.88" arrival="93.00" arrivalLane="162437609#0_1" arrivalPos="123.63" arrivalSpeed="15.39" duration="30.00" routeLength="369.03" waitingTime="0.00" waitingCount="0" stopTime="0.00" timeLoss="7.73" rerouteNo="1" devices="tripinfo_muscat_pc_straight.4 routing_muscat_pc_straight.4" vType="car" speedFactor="0.90" vaporized=""/>
    <tripinfo id="barka_pc_straight.6" depart="62.00" departLane="14465423#1.76_2" departPos="4.60" departSpeed="0.00" departDelay="51.90" arrival="94.00" arrivalLane="20911568_1" arrivalPos="104.83" arrivalSpeed="16.43" duration="32.00" routeLength="367.95" waitingTime="0.00" waitingCount="0" stopTime="0.00" timeLoss="9.25" rerouteNo="1" devices="tripinfo_barka_pc_straight.6 routing_barka_pc_straight.6" vType="car" speedFactor="1.18" vaporized=""/>
    <tripinfo id="barka_pc_straight.8" depart="68.00" departLane="14465423#1.76_2" departPos="4.60" departSpeed="0.00" departDelay="54.54" arrival="96.00" arrivalLane="20911568_1" arrivalPos="104.83" arrivalSpeed="16.63" duration="28.00" routeLength="367.95" waitingTime="0.00" waitingCount="0" stopTime="0.00" timeLoss="5.70" rerouteNo="1" devices="tripinfo_barka_pc_straight.8 routing_barka_pc_straight.8" vType="car" speedFactor="1.03" vaporized=""/>
    <tripinfo id="barka_pc_straight.7" depart="64.00" departLane="14465423#1.76_2" departPos="4.60" departSpeed="0.00" departDelay="52.22" arrival="97.00" arrivalLane="20911568_2" arrivalPos="104.83" arrivalSpeed="16.20" duration="33.00" routeLength="368.45" waitingTime="0.00" waitingCount="0" stopTime="0.00" timeLoss="10.33" rerouteNo="1" devices="tripinfo_barka_pc_straight.7 routing_barka_pc_straight.7" vType="car" speedFactor="1.10" vaporized=""/>
    <tripinfo id="barka_pc_straight.9" depart="71.00" departLane="14465423#1.76_2" departPos="4.60" departSpeed="0.00" departDelay="55.85" arrival="101.00" arrivalLane="20911568_1" arrivalPos="104.83" arrivalSpeed="16.06" duration="30.00" routeLength="367.95" waitingTime="0.00" waitingCount="0" stopTime="0.00" timeLoss="7.15" rerouteNo="1" devices="tripinfo_barka_pc_straight.9 routing_barka_pc_straight.9" vType="car" speedFactor="1.09" vaporized=""/>
    <tripinfo id="muscat_pc_straight.5" depart="66.00" departLane="20910781#1.199_2" departPos="4.60" departSpeed="0.00" departDelay="52.11" arrival="102.00" arrivalLane="162437609#0_1" arrivalPos="123.63" arrivalSpeed="16.33" duration="36.00" routeLength="369.03" waitingTime="0.00" waitingCount="0" stopTime="0.00" timeLoss="13.20" rerouteNo="1" devices="tripinfo_muscat_pc_straight.5 routing_muscat_pc_straight.5" vType="car" speedFactor="0.96" vaporized=""/>
    <tripinfo id="muscat_bus_left.0" depart="39.00" departLane="20910781#1.199_2" departPos="12.10" departSpeed="0.00" departDelay="39.00" arrival="103.00" arrivalLane="39450216_0" arrivalPos="27.24" arrivalSpeed="13.59" duration="64.00" routeLength="358.87" waitingTime="15.00" waitingCount="1" stopTime="0.00" timeLoss="37.25" rerouteNo="1" devices="tripinfo_muscat_bus_left.0 routing_muscat_bus_left.0" vType="bus" speedFactor="0.94" vaporized=""/>
    <tripinfo id="barka_pc_straight.10" depart="74.00" departLane="14465423#1.76_2" departPos="4.60" departSpeed="0.00" departDelay="57.17" arrival="103.00" arrivalLane="20911568_1" arrivalPos="104.83" arrivalSpeed="16.65" duration="29.00" routeLength="367.95" waitingTime="0.00" waitingCount="0" stopTime="0.00" timeLoss="6.39" rerouteNo="1" devices="tripinfo_barka_pc_straight.10 routing_barka_pc_straight.10" vType="car" speedFactor="1.04" vaporized=""/>
    <tripinfo id="barka_pc_straight.11" depart="77.00" departLane="14465423#1.76_2" departPos="4.60" departSpeed="0.00" departDelay="58.49" arrival="106.00" arrivalLane="20911568_1" arrivalPos="104.83" arrivalSpeed="16.56" duration="29.00" routeLength="367.95" waitingTime="0.00" waitingCount="0" stopTime="0.00" timeLoss="6.05" rerouteNo="1" devices="tripinfo_barka_pc_straight.11 routing_barka_pc_straight.11" vType="car" speedFactor="1.09" vaporized=""/>
    <tripinfo id="muscat_pc_straight.7" depart="72.00" departLane="20910781#1.199_2" departPos="4.60" departSpeed="0.00" departDelay="52.55" arrival="106.00" arrivalLane="162437609#0_0" arrivalPos="123.63" arrivalSpeed="15.55" duration="34.00" routeLength="368.84" waitingTime="0.00" waitingCount="0" stopTime="0.00" timeLoss="11.27" rerouteNo="1" devices="tripinfo_muscat_pc_straight.7 routing_muscat_pc_straight.7" vType="car" speedFactor="0.90" vaporized=""/>
    <tripinfo id="muscat_pc_straight.8" depart="75.00" departLane="20910781#1.199_2" departPos="4.60" departSpeed="0.00" departDelay="52.77" arrival="106.00" arrivalLane="162437609#0_1" arrivalPos="123.63" arrivalSpeed="16.32" duration="31.00" routeLength="369.03" waitingTime="0.00" waitingCount="0" stopTime="0.00" timeLoss="8.74" rerouteNo="1" devices="tripinfo_muscat_pc_straight.8 routing_muscat_pc_straight.8" vType="car" speedFactor="0.85" vaporized=""/>
    <tripinfo id="muscat_pc_straight.3" depart="60.00" departLane="20910781#1.199_2" departPos="4.60" departSpeed="0.00" departDelay="51.66" arrival="108.00" arrivalLane="162437609#0_1" arrivalPos="123.63" arrivalSpeed="15.51" duration="48.00" routeLength="369.03" waitingTime="11.00" waitingCount="2" stopTime="0.00" timeLoss="25.73" rerouteNo="1" devices="tripinfo_muscat_pc_straight.3 routing_muscat_pc_straight.3" vType="car" speedFactor="0.97" vaporized=""/>
    <tripinfo id="maabilah_pc_left.1" depart="82.00" departLane="39450217.13_0" departPos="4.60" departSpeed="0.00" departDelay="0.18" arrival="111.00" arrivalLane="162437609#0_1" arrivalPos="123.63" arrivalSpeed="16.12" duration="29.00" routeLength="395.38" waitingTime="0.00" waitingCount="0" stopTime="0.00" timeLoss="4.63" rerouteNo="1" devices="tripinfo_maabilah_pc_left.1 routing_maabilah_pc_left.1" vType="car" speedFactor="1.03" vaporized=""/>
    <tripinfo id="muscat_truck_uturn.0" depart="26.00" departLane="20910781#1.199_2" departPos="14.10" departSpeed="0.00" departDelay="26.00" arrival="112.00" arrivalLane="20911568_1" arrivalPos="104.83" arrivalSpeed="13.62" duration="86.00" routeLength="518.94" waitingTime="21.00" waitingCount="2" stopTime="0.00" timeLoss="48.16" rerouteNo="1" devices="tripinfo_muscat_truck_uturn.0 routing_muscat_truck_uturn.0" vType="truck" speedFactor="0.88" vaporized=""/>
    <tripinfo id="muscat_pc_straight.9" depart="78.00" departLane="20910781#1.199_2" departPos="4.60" departSpeed="0.00" departDelay="52.99" arrival="113.00" arrivalLane="162437609#0_1" arrivalPos="123.63" arrivalSpeed="16.36" duration="35.00" routeLength="369.03" waitingTime="0.00" waitingCount="0" stopTime="0.00" timeLoss="12.45" rerouteNo="1" devices="tripinfo_muscat_pc_straight.9 routing_muscat_pc_straight.9" vType="car" speedFactor="1.00" vaporized=""/>
    <tripinfo id="muscat_pc_straight.10" depart="81.00" departLane="20910781#1.199_2" departPos="4.60" departSpeed="0.00" departDelay="53.21" arrival="115.00" arrivalLane="162437609#0_1" arrivalPos="123.63" arrivalSpeed="16.15" duration="34.00" routeLength="369.03" waitingTime="0.00" waitingCount="0" stopTime="0.00" timeLoss="11.12" rerouteNo="1" devices="tripinfo_muscat_pc_straight.10 routing_muscat_pc_straight.10" vType="car" speedFactor="0.90" vaporized=""/>
    <tripinfo id="muscat_pc_straight.6" depart="69.00" departLane="20910781#1.199_2" departPos="4.60" departSpeed="0.00" departDelay="52.33" arrival="116.00" arrivalLane="162437609#0_1" arrivalPos="123.63" arrivalSpeed="15.65" duration="47.00" routeLength="369.03" waitingTime="4.00" waitingCount="1" stopTime="0.00" timeLoss="24.71" rerouteNo="1" devices="tripinfo_muscat_pc_straight.6 routing_muscat_pc_straight.6" vType="car" speedFactor="1.04" vaporized=""/>
    <tripinfo id="muscat_pc_right.1" depart="95.00" departLane="20910781#1.199_2" departPos="4.60" departSpeed="0.00" departDelay="59.71" arrival="116.00" arrivalLane="1432212744#0_0" arrivalPos="57.74" arrivalSpeed="15.61" duration="21.00" routeLength="218.69" waitingTime="0.00" waitingCount="0" stopTime="0.00" timeLoss="7.14" rerouteNo="1" devices="tripinfo_muscat_pc_right.1 routing_muscat_pc_right.1" vType="car" speedFactor="0.91" vaporized=""/>
    <tripinfo id="muscat_bus_uturn.0" depart="44.00" departLane="20910781#1.199_2" departPos="12.10" departSpeed="0.00" departDelay="44.00" arrival="117.00" arrivalLane="20911568_1" arrivalPos="104.83" arrivalSpeed="13.59" duration="73.00" routeLength="520.94" waitingTime="14.00" waitingCount="1" stopTime="0.00" timeLoss="34.67" rerouteNo="1" devices="tripinfo_muscat_bus_uturn.0 routing_muscat_bus_uturn.0" vType="bus" speedFactor="1.16" vaporized=""/>
    <tripinfo id="barka_pc_straight.13" depart="89.00" departLane="14465423#1.76_2" departPos="4.60" departSpeed="0.00" departDelay="67.12" arrival="118.00" arrivalLane="20911568_0" arrivalPos="104.83" arrivalSpeed="16.41" duration="29.00" routeLength="367.46" waitingTime="0.00" waitingCount="0" stopTime="0.00" timeLoss="6.19" rerouteNo="1" devices="tripinfo_barka_pc_straight.13 routing_barka_pc_straight.13" vType="car" speedFactor="0.85" vaporized=""/>
    <tripinfo id="barka_pc_straight.12" depart="86.00" departLane="14465423#1.76_2" departPos="4.60" departSpeed="0.00" departDelay="65.80" arrival="119.00" arrivalLane="20911568_1" arrivalPos="104.83" arrivalSpeed="16.34" duration="33.00" routeLength="367.95" waitingTime="0.00" waitingCount="0" stopTime="0.00" timeLoss="10.45" rerouteNo="1" devices="tripinfo_barka_pc_straight.12 routing_barka_pc_straight.12" vType="car" speedFactor="0.88" vaporized=""/>
    <tripinfo id="muscat_pc_left.1" depart="87.00" departLane="20910781#1.199_2" departPos="4.60" departSpeed="0.00" departDelay="58.88" arrival="119.00" arrivalLane="39450216_0" arrivalPos="27.24" arrivalSpeed="15.85" duration="32.00" routeLength="366.37" waitingTime="0.00" waitingCount="0" stopTime="0.00" timeLoss="9.71" rerouteNo="1" devices="tripinfo_muscat_pc_left.1 routing_muscat_pc_left.1" vType="car" speedFactor="0.97" vaporized=""/>
    <tripinfo id="muscat_pc_straight.11" depart="90.00" departLane="20910781#1.199_2" departPos="4.60" departSpeed="0.00" departDelay="59.43" arrival="119.00" arrivalLane="162437609#0_1" arrivalPos="123.63" arrivalSpeed="15.63" duration="29.00" routeLength="369.03" waitingTime="0.00" waitingCount="0" stopTime="0.00" timeLoss="6.64" rerouteNo="1" devices="tripinfo_muscat_pc_straight.11 routing_muscat_pc_straight.11" vType="car" speedFactor="1.12" vaporized=""/>
    <tripinfo id="muscat_pc_straight.12" depart="93.00" departLane="20910781#1.199_2" departPos="4.60" departSpeed="0.00" departDelay="59.65" arrival="121.00" arrivalLane="162437609#0_1" arrivalPos="123.63" arrivalSpeed="16.29" duration="28.00" routeLength="369.03" waitingTime="0.00" waitingCount="0" stopTime="0.00" timeLoss="5.44" rerouteNo="1" devices="tripinfo_muscat_pc_straight.12 routing_muscat_pc_straight.12" vType="car" speedFactor="0.88" vaporized=""/>
    <tripinfo id="barka_truck_straight.1" depart="81.00" departLane="14465423#1.76_2" departPos="14.10" departSpeed="0.00" departDelay="61.65" arrival="123.00" arrivalLane="20911568_1" arrivalPos="104.83" arrivalSpeed="13.46" duration="42.00" routeLength="358.45" waitingTime="0.00" waitingCount="0" stopTime="0.00" timeLoss="15.79" rerouteNo="1" devices="tripinfo_barka_truck_straight.1 routing_barka_truck_straight.1" vType="truck" speedFactor="1.00" vaporized=""/>
    <tripinfo id="barka_pc_straight.14" depart="92.00" departLane="14465423#1.76_2" departPos="4.60" departSpeed="0.00" departDelay="68.44" arrival="125.00" arrivalLane="20911568_1" arrivalPos="104.83" arrivalSpeed="16.02" duration="33.00" routeLength="367.95" waitingTime="0.00" waitingCount="0" stopTime="0.00" timeLoss="10.63" rerouteNo="1" devices="tripinfo_barka_pc_straight.14 routing_barka_pc_straight.14" vType="car" speedFactor="1.17" vaporized=""/>
    <tripinfo id="barka_pc_straight.15" depart="95.00" departLane="14465423#1.76_2" departPos="4.60" departSpeed="0.00" departDelay="69.76" arrival="127.00" arrivalLane="20911568_1" arrivalPos="104.83" arrivalSpeed="15.38" duration="32.00" routeLength="367.95" waitingTime="0.00" waitingCount="0" stopTime="0.00" timeLoss="9.29" rerouteNo="1" devices="tripinfo_barka_pc_straight.15 routing_barka_pc_straight.15" vType="car" speedFactor="1.02" vaporized=""/>
    <tripinfo id="muscat_pc_uturn.1" depart="84.00" departLane="20910781#1.199_2" departPos="4.60" departSpeed="0.00" departDelay="56.73" arrival="128.00" arrivalLane="20911568_1" arrivalPos="104.83" arrivalSpeed="16.01" duration="44.00" routeLength="528.44" waitingTime="0.00" waitingCount="0" stopTime="0.00" timeLoss="12.21" rerouteNo="1" devices="tripinfo_muscat_pc_uturn.1 routing_muscat_pc_uturn.1" vType="car" speedFactor="1.14" vaporized=""/>
    <tripinfo id="barka_pc_straight.16" depart="101.00" departLane="14465423#1.76_2" departPos="4.60" departSpeed="0.00" departDelay="74.07" arrival="134.00" arrivalLane="20911568_1" arrivalPos="104.83" arrivalSpeed="15.91" duration="33.00" routeLength="367.95" waitingTime="0.00" waitingCount="0" stopTime="0.00" timeLoss="10.41" rerouteNo="1" devices="tripinfo_barka_pc_straight.16 routing_barka_pc_straight.16" vType="car" speedFactor="1.00" vaporized=""/>
    <tripinfo id="barka_pc_straight.17" depart="104.00" departLane="14465423#1.76_2" departPos="4.60" departSpeed="0.00" departDelay="75.39" arrival="136.00" arrivalLane="20911568_1" arrivalPos="104.83" arrivalSpeed="16.30" duration="32.00" routeLength="367.95" waitingTime="0.00" waitingCount="0" stopTime="0.00" timeLoss="8.98" rerouteNo="1" devices="tripinfo_barka_pc_straight.17 routing_barka_pc_straight.17" vType="car" speedFactor="1.02" vaporized=""/>